<?xml version="1.0" encoding="UTF-8"?>

<!-- generated on недеља, 08. март 2020. 00:00:34 CET by Eclipse SUMO GUI Version 1.5.0
<configuration xmlns:xsi="http://www.w3.org/2001/XMLSchema-instance" xsi:noNamespaceSchemaLocation="http://sumo.dlr.de/xsd/sumoConfiguration.xsd">

    <input>
        <net-file value="/home/dunja/Desktop/TrafficLightSystem/cross.net.xml"/>
        <route-files value="/home/dunja/Desktop/TrafficLightSystem/cross.rou.xml"/>
    </input>

    <output>
        <tripinfo-output value="tripinfo.xml"/>
    </output>

    <time>
        <step-length value="0.05"/>
    </time>

    <traci_server>
        <remote-port value="60251"/>
    </traci_server>

    <gui_only>
        <tracker-interval value="0.05"/>
    </gui_only>

</configuration>
-->

<tripinfos xmlns:xsi="http://www.w3.org/2001/XMLSchema-instance" xsi:noNamespaceSchemaLocation="http://sumo.dlr.de/xsd/tripinfo_file.xsd">
    <tripinfo id="flow_00.0" depart="0.00" departLane="r_up_0" departPos="5.10" departSpeed="0.00" departDelay="0.00" arrival="16.85" arrivalLane="-r_down_0" arrivalPos="89.60" arrivalSpeed="14.66" duration="16.85" routeLength="194.90" waitingTime="0.00" waitingCount="0" stopTime="0.00" timeLoss="3.59" rerouteNo="0" devices="tripinfo_flow_00.0" vType="DEFAULT_VEHTYPE" speedFactor="1.06" vaporized=""/>
    <tripinfo id="flow_03.0" depart="0.00" departLane="r_down_0" departPos="5.10" departSpeed="0.00" departDelay="0.00" arrival="17.30" arrivalLane="-r_up_0" arrivalPos="89.60" arrivalSpeed="13.97" duration="17.30" routeLength="194.90" waitingTime="0.00" waitingCount="0" stopTime="0.00" timeLoss="3.38" rerouteNo="0" devices="tripinfo_flow_03.0" vType="DEFAULT_VEHTYPE" speedFactor="1.01" vaporized=""/>
    <tripinfo id="flow_01.0" depart="4.00" departLane="r_up_0" departPos="5.10" departSpeed="0.00" departDelay="0.00" arrival="22.60" arrivalLane="-r_left_0" arrivalPos="89.60" arrivalSpeed="14.26" duration="18.60" routeLength="183.13" waitingTime="0.00" waitingCount="0" stopTime="0.00" timeLoss="5.05" rerouteNo="0" devices="tripinfo_flow_01.0" vType="DEFAULT_VEHTYPE" speedFactor="1.03" vaporized=""/>
    <tripinfo id="flow_09.0" depart="0.00" departLane="r_right_0" departPos="5.10" departSpeed="0.00" departDelay="0.00" arrival="28.90" arrivalLane="-r_up_0" arrivalPos="89.60" arrivalSpeed="12.99" duration="28.90" routeLength="183.13" waitingTime="7.00" waitingCount="1" stopTime="0.00" timeLoss="14.04" rerouteNo="0" devices="tripinfo_flow_09.0" vType="DEFAULT_VEHTYPE" speedFactor="0.94" vaporized=""/>
    <tripinfo id="flow_07.0" depart="4.00" departLane="r_left_0" departPos="5.10" departSpeed="0.00" departDelay="0.00" arrival="29.65" arrivalLane="-r_down_0" arrivalPos="89.60" arrivalSpeed="11.50" duration="25.65" routeLength="183.53" waitingTime="2.70" waitingCount="1" stopTime="0.00" timeLoss="8.88" rerouteNo="0" devices="tripinfo_flow_07.0" vType="DEFAULT_VEHTYPE" speedFactor="0.83" vaporized=""/>
    <tripinfo id="flow_08.0" depart="8.00" departLane="r_left_0" departPos="5.10" departSpeed="0.00" departDelay="0.00" arrival="30.40" arrivalLane="-r_right_0" arrivalPos="89.60" arrivalSpeed="15.14" duration="22.40" routeLength="195.30" waitingTime="0.00" waitingCount="0" stopTime="0.00" timeLoss="9.49" rerouteNo="0" devices="tripinfo_flow_08.0" vType="DEFAULT_VEHTYPE" speedFactor="1.09" vaporized=""/>
    <tripinfo id="flow_11.0" depart="4.00" departLane="r_right_0" departPos="5.10" departSpeed="0.00" departDelay="0.00" arrival="31.45" arrivalLane="-r_left_0" arrivalPos="89.60" arrivalSpeed="12.30" duration="27.45" routeLength="194.90" waitingTime="0.00" waitingCount="0" stopTime="0.00" timeLoss="11.57" rerouteNo="0" devices="tripinfo_flow_11.0" vType="DEFAULT_VEHTYPE" speedFactor="0.89" vaporized=""/>
    <tripinfo id="flow_09.1" depart="20.00" departLane="r_right_0" departPos="5.10" departSpeed="0.00" departDelay="0.00" arrival="37.95" arrivalLane="-r_up_0" arrivalPos="89.60" arrivalSpeed="15.55" duration="17.95" routeLength="183.13" waitingTime="0.00" waitingCount="0" stopTime="0.00" timeLoss="5.51" rerouteNo="0" devices="tripinfo_flow_09.1" vType="DEFAULT_VEHTYPE" speedFactor="1.12" vaporized=""/>
    <tripinfo id="flow_11.1" depart="24.00" departLane="r_right_0" departPos="5.10" departSpeed="0.00" departDelay="0.00" arrival="40.00" arrivalLane="-r_left_0" arrivalPos="89.60" arrivalSpeed="16.04" duration="16.00" routeLength="194.90" waitingTime="0.00" waitingCount="0" stopTime="0.00" timeLoss="3.89" rerouteNo="0" devices="tripinfo_flow_11.1" vType="DEFAULT_VEHTYPE" speedFactor="1.16" vaporized=""/>
    <tripinfo id="flow_07.1" depart="24.00" departLane="r_left_0" departPos="5.10" departSpeed="0.00" departDelay="0.00" arrival="43.40" arrivalLane="-r_down_0" arrivalPos="89.60" arrivalSpeed="13.03" duration="19.40" routeLength="183.53" waitingTime="0.00" waitingCount="0" stopTime="0.00" timeLoss="4.54" rerouteNo="0" devices="tripinfo_flow_07.1" vType="DEFAULT_VEHTYPE" speedFactor="0.94" vaporized=""/>
    <tripinfo id="flow_04.0" depart="4.00" departLane="r_down_0" departPos="5.10" departSpeed="0.00" departDelay="0.00" arrival="47.10" arrivalLane="-r_left_1" arrivalPos="89.60" arrivalSpeed="14.52" duration="43.10" routeLength="193.45" waitingTime="21.00" waitingCount="1" stopTime="0.00" timeLoss="29.09" rerouteNo="0" devices="tripinfo_flow_04.0" vType="DEFAULT_VEHTYPE" speedFactor="1.05" vaporized=""/>
    <tripinfo id="flow_02.0" depart="8.00" departLane="r_up_0" departPos="5.10" departSpeed="0.00" departDelay="0.00" arrival="47.65" arrivalLane="-r_right_1" arrivalPos="89.60" arrivalSpeed="13.02" duration="39.65" routeLength="193.45" waitingTime="16.90" waitingCount="1" stopTime="0.00" timeLoss="24.04" rerouteNo="0" devices="tripinfo_flow_02.0" vType="DEFAULT_VEHTYPE" speedFactor="0.94" vaporized=""/>
    <tripinfo id="flow_02.1" depart="28.00" departLane="r_up_0" departPos="5.10" departSpeed="0.00" departDelay="0.00" arrival="49.10" arrivalLane="-r_right_1" arrivalPos="89.60" arrivalSpeed="14.11" duration="21.10" routeLength="193.45" waitingTime="0.00" waitingCount="0" stopTime="0.00" timeLoss="6.72" rerouteNo="0" devices="tripinfo_flow_02.1" vType="DEFAULT_VEHTYPE" speedFactor="1.02" vaporized=""/>
    <tripinfo id="flow_04.1" depart="24.00" departLane="r_down_0" departPos="5.10" departSpeed="0.00" departDelay="0.00" arrival="49.15" arrivalLane="-r_left_1" arrivalPos="89.60" arrivalSpeed="12.95" duration="25.15" routeLength="193.45" waitingTime="0.00" waitingCount="0" stopTime="0.00" timeLoss="9.53" rerouteNo="0" devices="tripinfo_flow_04.1" vType="DEFAULT_VEHTYPE" speedFactor="0.94" vaporized=""/>
    <tripinfo id="flow_00.1" depart="20.00" departLane="r_up_0" departPos="5.10" departSpeed="0.00" departDelay="0.00" arrival="65.25" arrivalLane="-r_down_0" arrivalPos="89.60" arrivalSpeed="14.51" duration="45.25" routeLength="194.90" waitingTime="23.10" waitingCount="1" stopTime="0.00" timeLoss="31.81" rerouteNo="0" devices="tripinfo_flow_00.1" vType="DEFAULT_VEHTYPE" speedFactor="1.05" vaporized=""/>
    <tripinfo id="flow_05.0" depart="8.00" departLane="r_down_0" departPos="5.10" departSpeed="0.00" departDelay="0.00" arrival="65.50" arrivalLane="-r_right_0" arrivalPos="89.60" arrivalSpeed="11.88" duration="57.50" routeLength="183.13" waitingTime="34.75" waitingCount="1" stopTime="0.00" timeLoss="41.23" rerouteNo="0" devices="tripinfo_flow_05.0" vType="DEFAULT_VEHTYPE" speedFactor="0.86" vaporized=""/>
    <tripinfo id="flow_03.1" depart="20.00" departLane="r_down_0" departPos="5.10" departSpeed="0.00" departDelay="0.00" arrival="66.90" arrivalLane="-r_up_0" arrivalPos="89.60" arrivalSpeed="13.76" duration="46.90" routeLength="194.90" waitingTime="20.00" waitingCount="1" stopTime="0.00" timeLoss="32.73" rerouteNo="0" devices="tripinfo_flow_03.1" vType="DEFAULT_VEHTYPE" speedFactor="0.99" vaporized=""/>
    <tripinfo id="flow_01.1" depart="24.00" departLane="r_up_0" departPos="5.10" departSpeed="0.00" departDelay="0.00" arrival="67.30" arrivalLane="-r_left_0" arrivalPos="89.60" arrivalSpeed="12.18" duration="43.30" routeLength="183.13" waitingTime="15.95" waitingCount="1" stopTime="0.00" timeLoss="27.44" rerouteNo="0" devices="tripinfo_flow_01.1" vType="DEFAULT_VEHTYPE" speedFactor="0.88" vaporized=""/>
    <tripinfo id="flow_05.1" depart="28.00" departLane="r_down_0" departPos="5.10" departSpeed="0.00" departDelay="0.00" arrival="68.10" arrivalLane="-r_right_0" arrivalPos="89.60" arrivalSpeed="13.99" duration="40.10" routeLength="183.13" waitingTime="13.00" waitingCount="1" stopTime="0.00" timeLoss="26.32" rerouteNo="0" devices="tripinfo_flow_05.1" vType="DEFAULT_VEHTYPE" speedFactor="1.01" vaporized=""/>
    <tripinfo id="flow_01.2" depart="44.00" departLane="r_up_0" departPos="5.10" departSpeed="0.00" departDelay="0.00" arrival="69.40" arrivalLane="-r_left_0" arrivalPos="89.60" arrivalSpeed="15.66" duration="25.40" routeLength="183.13" waitingTime="0.00" waitingCount="0" stopTime="0.00" timeLoss="13.05" rerouteNo="0" devices="tripinfo_flow_01.2" vType="DEFAULT_VEHTYPE" speedFactor="1.13" vaporized=""/>
    <tripinfo id="flow_00.2" depart="40.00" departLane="r_up_0" departPos="5.10" departSpeed="0.00" departDelay="0.00" arrival="69.80" arrivalLane="-r_down_0" arrivalPos="89.60" arrivalSpeed="11.42" duration="29.80" routeLength="194.90" waitingTime="0.85" waitingCount="1" stopTime="0.00" timeLoss="12.81" rerouteNo="0" devices="tripinfo_flow_00.2" vType="DEFAULT_VEHTYPE" speedFactor="0.83" vaporized=""/>
    <tripinfo id="flow_03.2" depart="40.00" departLane="r_down_0" departPos="5.10" departSpeed="0.00" departDelay="0.00" arrival="70.65" arrivalLane="-r_up_0" arrivalPos="89.60" arrivalSpeed="12.70" duration="30.65" routeLength="194.90" waitingTime="1.95" waitingCount="1" stopTime="0.00" timeLoss="15.33" rerouteNo="0" devices="tripinfo_flow_03.2" vType="DEFAULT_VEHTYPE" speedFactor="0.92" vaporized=""/>
    <tripinfo id="flow_05.2" depart="48.00" departLane="r_down_0" departPos="5.10" departSpeed="0.00" departDelay="0.00" arrival="70.95" arrivalLane="-r_right_0" arrivalPos="89.60" arrivalSpeed="16.27" duration="22.95" routeLength="183.13" waitingTime="0.00" waitingCount="0" stopTime="0.00" timeLoss="11.02" rerouteNo="0" devices="tripinfo_flow_05.2" vType="DEFAULT_VEHTYPE" speedFactor="1.17" vaporized=""/>
    <tripinfo id="flow_03.3" depart="60.00" departLane="r_down_0" departPos="5.10" departSpeed="0.00" departDelay="0.00" arrival="76.60" arrivalLane="-r_up_0" arrivalPos="89.60" arrivalSpeed="15.27" duration="16.60" routeLength="194.90" waitingTime="0.00" waitingCount="0" stopTime="0.00" timeLoss="3.83" rerouteNo="0" devices="tripinfo_flow_03.3" vType="DEFAULT_VEHTYPE" speedFactor="1.10" vaporized=""/>
    <tripinfo id="flow_00.3" depart="60.00" departLane="r_up_0" departPos="5.10" departSpeed="0.00" departDelay="0.00" arrival="77.70" arrivalLane="-r_down_0" arrivalPos="89.60" arrivalSpeed="13.47" duration="17.70" routeLength="194.90" waitingTime="0.00" waitingCount="0" stopTime="0.00" timeLoss="3.25" rerouteNo="0" devices="tripinfo_flow_00.3" vType="DEFAULT_VEHTYPE" speedFactor="0.97" vaporized=""/>
    <tripinfo id="flow_04.2" depart="44.00" departLane="r_down_0" departPos="5.10" departSpeed="0.00" departDelay="0.00" arrival="82.75" arrivalLane="-r_left_1" arrivalPos="89.60" arrivalSpeed="16.32" duration="38.75" routeLength="193.45" waitingTime="17.05" waitingCount="1" stopTime="0.00" timeLoss="26.32" rerouteNo="0" devices="tripinfo_flow_04.2" vType="DEFAULT_VEHTYPE" speedFactor="1.18" vaporized=""/>
    <tripinfo id="flow_02.2" depart="48.00" departLane="r_up_0" departPos="5.10" departSpeed="0.00" departDelay="0.00" arrival="83.10" arrivalLane="-r_right_1" arrivalPos="89.60" arrivalSpeed="13.92" duration="35.10" routeLength="193.45" waitingTime="13.00" waitingCount="1" stopTime="0.00" timeLoss="20.55" rerouteNo="0" devices="tripinfo_flow_02.2" vType="DEFAULT_VEHTYPE" speedFactor="1.01" vaporized=""/>
    <tripinfo id="flow_04.3" depart="64.00" departLane="r_down_0" departPos="5.10" departSpeed="0.00" departDelay="0.00" arrival="84.30" arrivalLane="-r_left_1" arrivalPos="89.60" arrivalSpeed="15.13" duration="20.30" routeLength="193.45" waitingTime="0.00" waitingCount="0" stopTime="0.00" timeLoss="6.89" rerouteNo="0" devices="tripinfo_flow_04.3" vType="DEFAULT_VEHTYPE" speedFactor="1.09" vaporized=""/>
    <tripinfo id="flow_02.3" depart="68.00" departLane="r_up_0" departPos="5.10" departSpeed="0.00" departDelay="0.00" arrival="86.15" arrivalLane="-r_right_1" arrivalPos="89.60" arrivalSpeed="14.48" duration="18.15" routeLength="193.45" waitingTime="0.00" waitingCount="0" stopTime="0.00" timeLoss="4.10" rerouteNo="0" devices="tripinfo_flow_02.3" vType="DEFAULT_VEHTYPE" speedFactor="1.04" vaporized=""/>
    <tripinfo id="flow_04.4" depart="84.00" departLane="r_down_0" departPos="5.10" departSpeed="0.00" departDelay="0.00" arrival="102.60" arrivalLane="-r_left_1" arrivalPos="89.60" arrivalSpeed="13.90" duration="18.60" routeLength="193.45" waitingTime="0.00" waitingCount="0" stopTime="0.00" timeLoss="4.02" rerouteNo="0" devices="tripinfo_flow_04.4" vType="DEFAULT_VEHTYPE" speedFactor="1.00" vaporized=""/>
    <tripinfo id="flow_02.4" depart="88.00" departLane="r_up_0" departPos="5.10" departSpeed="0.00" departDelay="0.00" arrival="107.85" arrivalLane="-r_right_1" arrivalPos="89.60" arrivalSpeed="12.48" duration="19.85" routeLength="193.45" waitingTime="0.00" waitingCount="0" stopTime="0.00" timeLoss="3.58" rerouteNo="0" devices="tripinfo_flow_02.4" vType="DEFAULT_VEHTYPE" speedFactor="0.90" vaporized=""/>
    <tripinfo id="flow_05.3" depart="68.00" departLane="r_down_0" departPos="5.10" departSpeed="0.00" departDelay="0.00" arrival="118.30" arrivalLane="-r_right_0" arrivalPos="89.60" arrivalSpeed="15.09" duration="50.30" routeLength="183.13" waitingTime="29.15" waitingCount="1" stopTime="0.00" timeLoss="37.48" rerouteNo="0" devices="tripinfo_flow_05.3" vType="DEFAULT_VEHTYPE" speedFactor="1.09" vaporized=""/>
    <tripinfo id="flow_01.3" depart="64.00" departLane="r_up_0" departPos="5.10" departSpeed="0.00" departDelay="0.00" arrival="118.45" arrivalLane="-r_left_0" arrivalPos="89.60" arrivalSpeed="14.27" duration="54.45" routeLength="183.13" waitingTime="33.05" waitingCount="1" stopTime="0.00" timeLoss="40.93" rerouteNo="0" devices="tripinfo_flow_01.3" vType="DEFAULT_VEHTYPE" speedFactor="1.03" vaporized=""/>
    <tripinfo id="flow_05.4" depart="88.00" departLane="r_down_0" departPos="5.10" departSpeed="0.00" departDelay="0.00" arrival="121.20" arrivalLane="-r_right_0" arrivalPos="89.60" arrivalSpeed="15.85" duration="33.20" routeLength="183.13" waitingTime="7.10" waitingCount="1" stopTime="0.00" timeLoss="21.00" rerouteNo="0" devices="tripinfo_flow_05.4" vType="DEFAULT_VEHTYPE" speedFactor="1.14" vaporized=""/>
    <tripinfo id="flow_00.4" depart="80.00" departLane="r_up_0" departPos="5.10" departSpeed="0.00" departDelay="0.00" arrival="121.45" arrivalLane="-r_down_0" arrivalPos="89.60" arrivalSpeed="12.12" duration="41.45" routeLength="194.90" waitingTime="14.10" waitingCount="1" stopTime="0.00" timeLoss="25.42" rerouteNo="0" devices="tripinfo_flow_00.4" vType="DEFAULT_VEHTYPE" speedFactor="0.88" vaporized=""/>
    <tripinfo id="flow_03.4" depart="80.00" departLane="r_down_0" departPos="5.10" departSpeed="0.00" departDelay="0.00" arrival="121.55" arrivalLane="-r_up_0" arrivalPos="89.60" arrivalSpeed="11.83" duration="41.55" routeLength="194.90" waitingTime="13.95" waitingCount="1" stopTime="0.00" timeLoss="25.13" rerouteNo="0" devices="tripinfo_flow_03.4" vType="DEFAULT_VEHTYPE" speedFactor="0.85" vaporized=""/>
    <tripinfo id="flow_01.4" depart="84.00" departLane="r_up_0" departPos="5.10" departSpeed="0.00" departDelay="0.00" arrival="122.00" arrivalLane="-r_left_0" arrivalPos="89.60" arrivalSpeed="14.07" duration="38.00" routeLength="183.13" waitingTime="10.75" waitingCount="1" stopTime="0.00" timeLoss="24.28" rerouteNo="0" devices="tripinfo_flow_01.4" vType="DEFAULT_VEHTYPE" speedFactor="1.02" vaporized=""/>
    <tripinfo id="flow_00.5" depart="100.00" departLane="r_up_0" departPos="5.10" departSpeed="0.00" departDelay="0.00" arrival="123.60" arrivalLane="-r_down_0" arrivalPos="89.60" arrivalSpeed="14.97" duration="23.60" routeLength="194.90" waitingTime="0.00" waitingCount="0" stopTime="0.00" timeLoss="10.64" rerouteNo="0" devices="tripinfo_flow_00.5" vType="DEFAULT_VEHTYPE" speedFactor="1.08" vaporized=""/>
    <tripinfo id="flow_03.5" depart="100.00" departLane="r_down_0" departPos="5.10" departSpeed="0.00" departDelay="0.00" arrival="123.60" arrivalLane="-r_up_0" arrivalPos="89.60" arrivalSpeed="14.05" duration="23.60" routeLength="194.90" waitingTime="0.00" waitingCount="0" stopTime="0.00" timeLoss="9.74" rerouteNo="0" devices="tripinfo_flow_03.5" vType="DEFAULT_VEHTYPE" speedFactor="1.02" vaporized=""/>
    <tripinfo id="flow_01.5" depart="104.00" departLane="r_up_0" departPos="5.10" departSpeed="0.00" departDelay="0.00" arrival="126.40" arrivalLane="-r_left_0" arrivalPos="89.60" arrivalSpeed="12.98" duration="22.40" routeLength="183.13" waitingTime="0.00" waitingCount="0" stopTime="0.00" timeLoss="7.51" rerouteNo="0" devices="tripinfo_flow_01.5" vType="DEFAULT_VEHTYPE" speedFactor="0.94" vaporized=""/>
    <tripinfo id="flow_05.5" depart="108.00" departLane="r_down_0" departPos="5.10" departSpeed="0.00" departDelay="0.00" arrival="126.75" arrivalLane="-r_right_0" arrivalPos="89.60" arrivalSpeed="14.17" duration="18.75" routeLength="183.13" waitingTime="0.00" waitingCount="0" stopTime="0.00" timeLoss="5.10" rerouteNo="0" devices="tripinfo_flow_05.5" vType="DEFAULT_VEHTYPE" speedFactor="1.02" vaporized=""/>
    <tripinfo id="flow_09.2" depart="40.00" departLane="r_right_0" departPos="5.10" departSpeed="0.00" departDelay="0.00" arrival="137.30" arrivalLane="-r_up_0" arrivalPos="89.60" arrivalSpeed="12.11" duration="97.30" routeLength="183.13" waitingTime="74.80" waitingCount="1" stopTime="0.00" timeLoss="81.34" rerouteNo="0" devices="tripinfo_flow_09.2" vType="DEFAULT_VEHTYPE" speedFactor="0.87" vaporized=""/>
    <tripinfo id="flow_08.1" depart="28.00" departLane="r_left_0" departPos="5.10" departSpeed="0.00" departDelay="0.00" arrival="137.50" arrivalLane="-r_right_0" arrivalPos="89.60" arrivalSpeed="13.51" duration="109.50" routeLength="195.30" waitingTime="87.05" waitingCount="1" stopTime="0.00" timeLoss="95.07" rerouteNo="0" devices="tripinfo_flow_08.1" vType="DEFAULT_VEHTYPE" speedFactor="0.98" vaporized=""/>
    <tripinfo id="flow_11.2" depart="44.00" departLane="r_right_0" departPos="5.10" departSpeed="0.00" departDelay="0.00" arrival="138.25" arrivalLane="-r_left_0" arrivalPos="89.60" arrivalSpeed="16.02" duration="94.25" routeLength="194.90" waitingTime="68.10" waitingCount="1" stopTime="0.00" timeLoss="82.06" rerouteNo="0" devices="tripinfo_flow_11.2" vType="DEFAULT_VEHTYPE" speedFactor="1.15" vaporized=""/>
    <tripinfo id="flow_07.2" depart="44.00" departLane="r_left_0" departPos="5.10" departSpeed="0.00" departDelay="0.00" arrival="138.80" arrivalLane="-r_down_0" arrivalPos="89.60" arrivalSpeed="12.92" duration="94.80" routeLength="183.53" waitingTime="68.00" waitingCount="1" stopTime="0.00" timeLoss="79.79" rerouteNo="0" devices="tripinfo_flow_07.2" vType="DEFAULT_VEHTYPE" speedFactor="0.93" vaporized=""/>
    <tripinfo id="flow_09.3" depart="60.00" departLane="r_right_0" departPos="5.10" departSpeed="0.00" departDelay="0.00" arrival="139.25" arrivalLane="-r_up_0" arrivalPos="89.60" arrivalSpeed="16.34" duration="79.25" routeLength="183.13" waitingTime="53.00" waitingCount="1" stopTime="0.00" timeLoss="67.42" rerouteNo="0" devices="tripinfo_flow_09.3" vType="DEFAULT_VEHTYPE" speedFactor="1.18" vaporized=""/>
    <tripinfo id="flow_08.2" depart="48.00" departLane="r_left_0" departPos="5.10" departSpeed="0.00" departDelay="0.00" arrival="140.50" arrivalLane="-r_right_0" arrivalPos="89.60" arrivalSpeed="13.81" duration="92.50" routeLength="195.30" waitingTime="64.70" waitingCount="1" stopTime="0.00" timeLoss="78.34" rerouteNo="0" devices="tripinfo_flow_08.2" vType="DEFAULT_VEHTYPE" speedFactor="0.99" vaporized=""/>
    <tripinfo id="flow_11.3" depart="64.00" departLane="r_right_0" departPos="5.10" departSpeed="0.00" departDelay="0.00" arrival="141.50" arrivalLane="-r_left_0" arrivalPos="89.60" arrivalSpeed="14.37" duration="77.50" routeLength="194.90" waitingTime="49.80" waitingCount="1" stopTime="0.00" timeLoss="63.95" rerouteNo="0" devices="tripinfo_flow_11.3" vType="DEFAULT_VEHTYPE" speedFactor="1.04" vaporized=""/>
    <tripinfo id="flow_07.3" depart="64.00" departLane="r_left_0" departPos="5.10" departSpeed="0.00" departDelay="0.00" arrival="142.40" arrivalLane="-r_down_0" arrivalPos="89.60" arrivalSpeed="13.23" duration="78.40" routeLength="183.53" waitingTime="50.05" waitingCount="1" stopTime="0.00" timeLoss="63.80" rerouteNo="0" devices="tripinfo_flow_07.3" vType="DEFAULT_VEHTYPE" speedFactor="0.96" vaporized=""/>
    <tripinfo id="flow_08.3" depart="68.00" departLane="r_left_0" departPos="5.10" departSpeed="0.00" departDelay="0.00" arrival="144.20" arrivalLane="-r_right_0" arrivalPos="89.60" arrivalSpeed="13.80" duration="76.20" routeLength="195.30" waitingTime="47.00" waitingCount="1" stopTime="0.00" timeLoss="62.07" rerouteNo="0" devices="tripinfo_flow_08.3" vType="DEFAULT_VEHTYPE" speedFactor="1.00" vaporized=""/>
    <tripinfo id="flow_09.4" depart="80.00" departLane="r_right_0" departPos="5.10" departSpeed="0.00" departDelay="0.00" arrival="144.90" arrivalLane="-r_up_0" arrivalPos="89.60" arrivalSpeed="11.78" duration="64.90" routeLength="183.13" waitingTime="35.20" waitingCount="1" stopTime="0.00" timeLoss="48.52" rerouteNo="0" devices="tripinfo_flow_09.4" vType="DEFAULT_VEHTYPE" speedFactor="0.85" vaporized=""/>
    <tripinfo id="flow_07.4" depart="84.00" departLane="r_left_0" departPos="5.10" departSpeed="0.00" departDelay="0.00" arrival="145.35" arrivalLane="-r_down_0" arrivalPos="89.60" arrivalSpeed="15.16" duration="61.35" routeLength="183.53" waitingTime="32.35" waitingCount="1" stopTime="0.00" timeLoss="48.59" rerouteNo="0" devices="tripinfo_flow_07.4" vType="DEFAULT_VEHTYPE" speedFactor="1.10" vaporized=""/>
    <tripinfo id="flow_11.4" depart="84.00" departLane="r_right_0" departPos="5.10" departSpeed="0.00" departDelay="0.00" arrival="146.05" arrivalLane="-r_left_0" arrivalPos="89.60" arrivalSpeed="13.79" duration="62.05" routeLength="194.90" waitingTime="32.20" waitingCount="1" stopTime="0.00" timeLoss="47.97" rerouteNo="0" devices="tripinfo_flow_11.4" vType="DEFAULT_VEHTYPE" speedFactor="1.00" vaporized=""/>
    <tripinfo id="flow_09.5" depart="100.00" departLane="r_right_0" departPos="5.10" departSpeed="0.00" departDelay="0.00" arrival="147.10" arrivalLane="-r_up_0" arrivalPos="89.60" arrivalSpeed="15.49" duration="47.10" routeLength="183.13" waitingTime="17.80" waitingCount="1" stopTime="0.00" timeLoss="34.63" rerouteNo="0" devices="tripinfo_flow_09.5" vType="DEFAULT_VEHTYPE" speedFactor="1.12" vaporized=""/>
    <tripinfo id="flow_08.4" depart="88.00" departLane="r_left_0" departPos="5.10" departSpeed="0.00" departDelay="0.00" arrival="147.50" arrivalLane="-r_right_0" arrivalPos="89.60" arrivalSpeed="14.19" duration="59.50" routeLength="195.30" waitingTime="29.45" waitingCount="1" stopTime="0.00" timeLoss="45.77" rerouteNo="0" devices="tripinfo_flow_08.4" vType="DEFAULT_VEHTYPE" speedFactor="1.02" vaporized=""/>
    <tripinfo id="flow_11.5" depart="104.00" departLane="r_right_0" departPos="5.10" departSpeed="0.00" departDelay="0.00" arrival="149.95" arrivalLane="-r_left_0" arrivalPos="89.60" arrivalSpeed="12.66" duration="45.95" routeLength="194.90" waitingTime="14.90" waitingCount="1" stopTime="0.00" timeLoss="30.61" rerouteNo="0" devices="tripinfo_flow_11.5" vType="DEFAULT_VEHTYPE" speedFactor="0.91" vaporized=""/>
    <tripinfo id="flow_07.5" depart="104.00" departLane="r_left_0" departPos="5.10" departSpeed="0.00" departDelay="0.00" arrival="150.60" arrivalLane="-r_down_0" arrivalPos="89.60" arrivalSpeed="12.19" duration="46.60" routeLength="183.53" waitingTime="15.10" waitingCount="1" stopTime="0.00" timeLoss="30.81" rerouteNo="0" devices="tripinfo_flow_07.5" vType="DEFAULT_VEHTYPE" speedFactor="0.88" vaporized=""/>
    <tripinfo id="flow_03.6" depart="120.00" departLane="r_down_0" departPos="5.10" departSpeed="0.00" departDelay="0.00" arrival="155.60" arrivalLane="-r_up_0" arrivalPos="89.60" arrivalSpeed="13.21" duration="35.60" routeLength="194.90" waitingTime="13.10" waitingCount="1" stopTime="0.00" timeLoss="20.90" rerouteNo="0" devices="tripinfo_flow_03.6" vType="DEFAULT_VEHTYPE" speedFactor="0.96" vaporized=""/>
    <tripinfo id="flow_00.6" depart="120.00" departLane="r_up_0" departPos="5.10" departSpeed="0.00" departDelay="0.00" arrival="155.70" arrivalLane="-r_down_0" arrivalPos="89.60" arrivalSpeed="13.04" duration="35.70" routeLength="194.90" waitingTime="12.95" waitingCount="1" stopTime="0.00" timeLoss="20.78" rerouteNo="0" devices="tripinfo_flow_00.6" vType="DEFAULT_VEHTYPE" speedFactor="0.94" vaporized=""/>
    <tripinfo id="flow_01.6" depart="124.00" departLane="r_up_0" departPos="5.10" departSpeed="0.00" departDelay="0.00" arrival="156.10" arrivalLane="-r_left_0" arrivalPos="89.60" arrivalSpeed="14.30" duration="32.10" routeLength="183.13" waitingTime="6.00" waitingCount="1" stopTime="0.00" timeLoss="18.58" rerouteNo="0" devices="tripinfo_flow_01.6" vType="DEFAULT_VEHTYPE" speedFactor="1.03" vaporized=""/>
    <tripinfo id="flow_05.6" depart="128.00" departLane="r_down_0" departPos="5.10" departSpeed="0.00" departDelay="0.00" arrival="156.25" arrivalLane="-r_right_0" arrivalPos="89.60" arrivalSpeed="13.82" duration="28.25" routeLength="183.13" waitingTime="2.10" waitingCount="1" stopTime="0.00" timeLoss="14.30" rerouteNo="0" devices="tripinfo_flow_05.6" vType="DEFAULT_VEHTYPE" speedFactor="1.00" vaporized=""/>
    <tripinfo id="flow_00.7" depart="140.00" departLane="r_up_0" departPos="5.10" departSpeed="0.00" departDelay="0.00" arrival="157.45" arrivalLane="-r_down_0" arrivalPos="89.60" arrivalSpeed="15.94" duration="17.45" routeLength="194.90" waitingTime="0.00" waitingCount="0" stopTime="0.00" timeLoss="5.21" rerouteNo="0" devices="tripinfo_flow_00.7" vType="DEFAULT_VEHTYPE" speedFactor="1.15" vaporized=""/>
    <tripinfo id="flow_03.7" depart="140.00" departLane="r_down_0" departPos="5.10" departSpeed="0.00" departDelay="0.00" arrival="158.15" arrivalLane="-r_up_0" arrivalPos="89.60" arrivalSpeed="13.91" duration="18.15" routeLength="194.90" waitingTime="0.00" waitingCount="0" stopTime="0.00" timeLoss="4.12" rerouteNo="0" devices="tripinfo_flow_03.7" vType="DEFAULT_VEHTYPE" speedFactor="1.00" vaporized=""/>
    <tripinfo id="flow_01.7" depart="144.00" departLane="r_up_0" departPos="5.10" departSpeed="0.00" departDelay="0.00" arrival="162.80" arrivalLane="-r_left_0" arrivalPos="89.60" arrivalSpeed="13.95" duration="18.80" routeLength="183.13" waitingTime="0.00" waitingCount="0" stopTime="0.00" timeLoss="4.93" rerouteNo="0" devices="tripinfo_flow_01.7" vType="DEFAULT_VEHTYPE" speedFactor="1.01" vaporized=""/>
    <tripinfo id="flow_05.7" depart="148.00" departLane="r_down_0" departPos="5.10" departSpeed="0.00" departDelay="0.00" arrival="167.55" arrivalLane="-r_right_0" arrivalPos="89.60" arrivalSpeed="12.78" duration="19.55" routeLength="183.13" waitingTime="0.00" waitingCount="0" stopTime="0.00" timeLoss="4.42" rerouteNo="0" devices="tripinfo_flow_05.7" vType="DEFAULT_VEHTYPE" speedFactor="0.92" vaporized=""/>
    <tripinfo id="flow_02.5" depart="108.00" departLane="r_up_0" departPos="5.10" departSpeed="0.00" departDelay="0.00" arrival="173.05" arrivalLane="-r_right_1" arrivalPos="89.60" arrivalSpeed="14.42" duration="65.05" routeLength="193.45" waitingTime="43.05" waitingCount="1" stopTime="0.00" timeLoss="50.99" rerouteNo="0" devices="tripinfo_flow_02.5" vType="DEFAULT_VEHTYPE" speedFactor="1.04" vaporized=""/>
    <tripinfo id="flow_04.5" depart="104.00" departLane="r_down_0" departPos="5.10" departSpeed="0.00" departDelay="0.00" arrival="173.85" arrivalLane="-r_left_1" arrivalPos="89.60" arrivalSpeed="12.59" duration="69.85" routeLength="193.45" waitingTime="46.90" waitingCount="1" stopTime="0.00" timeLoss="53.70" rerouteNo="0" devices="tripinfo_flow_04.5" vType="DEFAULT_VEHTYPE" speedFactor="0.91" vaporized=""/>
    <tripinfo id="flow_02.6" depart="128.00" departLane="r_up_0" departPos="5.10" departSpeed="0.00" departDelay="0.00" arrival="174.55" arrivalLane="-r_right_1" arrivalPos="89.60" arrivalSpeed="14.31" duration="46.55" routeLength="193.45" waitingTime="20.10" waitingCount="1" stopTime="0.00" timeLoss="32.38" rerouteNo="0" devices="tripinfo_flow_02.6" vType="DEFAULT_VEHTYPE" speedFactor="1.03" vaporized=""/>
    <tripinfo id="flow_04.6" depart="124.00" departLane="r_down_0" departPos="5.10" departSpeed="0.00" departDelay="0.00" arrival="175.25" arrivalLane="-r_left_1" arrivalPos="89.60" arrivalSpeed="13.98" duration="51.25" routeLength="193.45" waitingTime="24.10" waitingCount="1" stopTime="0.00" timeLoss="36.74" rerouteNo="0" devices="tripinfo_flow_04.6" vType="DEFAULT_VEHTYPE" speedFactor="1.01" vaporized=""/>
    <tripinfo id="flow_04.7" depart="144.00" departLane="r_down_0" departPos="5.10" departSpeed="0.00" departDelay="0.00" arrival="176.70" arrivalLane="-r_left_1" arrivalPos="89.60" arrivalSpeed="14.10" duration="32.70" routeLength="193.45" waitingTime="5.05" waitingCount="1" stopTime="0.00" timeLoss="18.28" rerouteNo="0" devices="tripinfo_flow_04.7" vType="DEFAULT_VEHTYPE" speedFactor="1.02" vaporized=""/>
    <tripinfo id="flow_02.7" depart="148.00" departLane="r_up_0" departPos="5.10" departSpeed="0.00" departDelay="0.00" arrival="177.75" arrivalLane="-r_right_1" arrivalPos="89.60" arrivalSpeed="11.54" duration="29.75" routeLength="193.45" waitingTime="0.80" waitingCount="1" stopTime="0.00" timeLoss="12.17" rerouteNo="0" devices="tripinfo_flow_02.7" vType="DEFAULT_VEHTYPE" speedFactor="0.83" vaporized=""/>